8
energy=-7.083836404356064
C	0.94241	-0.05866	-0.05262
C	2.45446	-0.05866	-0.05262
H	0.55803	-0.68674	0.75658
H	0.55803	-0.4454	-1.00115
H	0.55803	0.95616	0.08672
H	2.83883	-1.07348	-0.19196
H	2.83884	0.32808	0.89591
H	2.83883	0.56942	-0.86181
6
energy=-4.7142405587786556
C	0.94325	-0.04584	0.05595
C	2.27904	-0.04584	0.05595
H	0.38337	0.56381	-0.6463
H	0.38337	-0.65549	0.7582
H	2.83893	0.56381	-0.6463
H	2.83893	-0.65549	0.7582
4
energy=-2.655869322900453
C	0.98806	0.07159	-0.02854
C	2.18836	0.07159	-0.02854
H	-0.07775	0.07159	-0.02854
H	3.25416	0.07159	-0.02854
