8
Properties=species:S:1:pos:R:3:forces:R:3 =T energy=-7.083836404356064 free_energy=-7.083836404356064 pbc="F F F"
C       0.94241000      -0.05866000      -0.05262000       3.63142663      -0.00038143       0.00036838 
C       2.45446000      -0.05866000      -0.05262000      -3.63187443       0.00008893       0.00043934 
H       0.55803000      -0.68674000       0.75658000      -0.57909272      -0.74634393       0.96158037 
H       0.55803000      -0.44540000      -1.00115000      -0.57928003      -0.45974798      -1.12760746 
H       0.55803000       0.95616000       0.08672000      -0.57930769       1.20647227       0.16565645 
H       2.83883000      -1.07348000      -0.19196000       0.57940766      -1.20678147      -0.16570034 
H       2.83884000       0.32808000       0.89591000       0.57927715       0.45975047       1.12759329 
H       2.83883000       0.56942000      -0.86181000       0.57944343       0.74694315      -0.96233002 
6
Properties=species:S:1:pos:R:3:forces:R:3 =T energy=-4.7142405587786556 free_energy=-4.7142405587786556 pbc="F F F"
C       0.94325000      -0.04584000       0.05595000       5.37717893       0.00000000       0.00000000 
C       2.27904000      -0.04584000       0.05595000      -5.37663681       0.00000000       0.00000000 
H       0.38337000       0.56381000      -0.64630000      -1.39470973       1.45868033      -1.68023991 
H       0.38337000      -0.65549000       0.75820000      -1.39470973      -1.45868033       1.68023991 
H       2.83893000       0.56381000      -0.64630000       1.39443867       1.45835277      -1.67986259 
H       2.83893000      -0.65549000       0.75820000       1.39443867      -1.45835277       1.67986259 
4
Properties=species:S:1:pos:R:3:forces:R:3 =T energy=-2.655869322900453 free_energy=-2.655869322900453 pbc="F F F"
C       0.98806000       0.07159000      -0.02854000       7.89002962       0.00000000       0.00000000 
C       2.18836000       0.07159000      -0.02854000      -7.89157508       0.00000000       0.00000000 
H      -0.07775000       0.07159000      -0.02854000      -5.52138527       0.00000000       0.00000000 
H       3.25416000       0.07159000      -0.02854000       5.52293072       0.00000000       0.00000000 
